 Gaussian 09, Revision C.01,
 Gaussian 09:  EM64L-G09RevC.01 23-Sep-2011

 --------------------------------
 # freq opt b3lyp/6-31g* pop=full
 --------------------------------

 99/9=1/99;
 -------------------
 Title Card Required
 -------------------
 Charge =  0 Multiplicity = 1

 SCF Done:  E(RB3LYP) =  -155.992138600     A.U. after   12 cycles
 Optimization completed.
    -- Stationary point found.
 Normal termination of Gaussian 09 at Tue Mar  2 11:21:09 2021.

 --------------------------------------------------------------------
 #N Geom=AllCheck Guess=TCheck SCRF=Check GenChk RB3LYP/6-31G(d) Freq
 --------------------------------------------------------------------

 Structure from the checkpoint file:  buta01.chk
 -------------------
 Title Card Required
 -------------------
 Charge =  0 Multiplicity = 1

                         Standard orientation:
 ---------------------------------------------------------------------
 Center     Atomic      Atomic             Coordinates (Angstroms)
 Number     Number       Type             X           Y           Z
 ---------------------------------------------------------------------
      1          6           0        1.107129   -1.484654    0.000000
      2          1           0        2.099989   -1.039868    0.000000
      3          1           0        1.059957   -2.569406    0.000000
      4          6           0       -0.000011   -0.728770    0.000000
      5          1           0       -0.978112   -1.211048    0.000000
      6          6           0        0.000000    0.728758    0.000000
      7          1           0        0.978110    1.211018    0.000000
      8          6           0       -1.107123    1.484663    0.000000
      9          1           0       -2.099997    1.039911    0.000000
     10          1           0       -1.059916    2.569414    0.000000
 ---------------------------------------------------------------------

 SCF Done:  E(RB3LYP) =  -155.992138600     A.U. after    1 cycles

 The electronic state is 1-A'.
 Alpha  occ. eigenvalues --  -10.19246 -10.19211 -10.18379 -10.18379  -0.80142
 Alpha  occ. eigenvalues --   -0.72964  -0.60310  -0.55036  -0.46394  -0.45916
 Alpha  occ. eigenvalues --   -0.39136  -0.38493  -0.34434  -0.31981  -0.22902
 Alpha virt. eigenvalues --   -0.02250   0.08547   0.11555   0.12565   0.13073
 Alpha virt. eigenvalues --    0.17487   0.19251   0.21195   0.32519   0.33674
 Alpha virt. eigenvalues --    0.39728   0.47197   0.51674   0.53025   0.57791

 Mulliken atomic charges:
              1
     1  C   -0.352924
     2  H    0.141459
     3  H    0.144710
     4  C   -0.059779
     5  H    0.126536
     6  C   -0.059783
     7  H    0.126535
     8  C   -0.352923
     9  H    0.141459
    10  H    0.144710
 Sum of Mulliken atomic charges =   0.00000

 Dipole moment (field-independent basis, Debye):
    X=              0.0000    Y=              0.0000    Z=              0.0000  Tot=              0.0000
 Quadrupole moment (field-independent basis, Debye-Ang):
   XX=            -22.6817   YY=            -22.7828   ZZ=            -27.9366
   XY=              0.0965   XZ=              0.0000   YZ=              0.0000

  Exact polarizability:  56.137 -19.957  60.721   0.000   0.000  15.514
 Approx polarizability:  91.424 -39.353  89.673   0.000   0.000  21.585

                     1                      2                      3
                    A"                     A'                     A'
 Frequencies --   177.6027               298.6359               516.4970
 Red. masses --     2.6397                 2.1658                 2.6906
 Frc consts  --     0.0491                 0.1138                 0.4229
 IR Inten    --     0.2107                 2.6013                 0.0000

                     4                      5                      6
                    A"                     A"                     A'
 Frequencies --   539.0436               781.6311               907.2040
 Red. masses --     1.0744                 1.6625                 1.8168
 Frc consts  --     0.1839                 0.5984                 0.8810
 IR Inten    --     7.9450                 0.0000                 0.0000

                     7                      8                      9
                    A"                     A"                     A"
 Frequencies --   927.9987               931.8953              1002.9628
 Red. masses --     1.3662                 1.3469                 1.1765
 Frc consts  --     0.6932                 0.6892                 0.6973
 IR Inten    --    78.7703                 0.0000                 0.0000

                    10                     11                     12
                    A'                     A"                     A'
 Frequencies --  1010.5994              1064.2113              1240.8438
 Red. masses --     1.1978                 1.0907                 1.9559
 Frc consts  --     0.7208                 0.7278                 1.7743
 IR Inten    --     2.3171                25.6479                 0.0000

                    13                     14                     15
                    A'                     A'                     A'
 Frequencies --  1329.0429              1331.5522              1435.0921
 Red. masses --     1.3497                 1.2793                 1.2543
 Frc consts  --     1.4046                 1.3364                 1.5220
 IR Inten    --     0.0000                 2.0460                 2.6879

                    16                     17                     18
                    A'                     A'                     A'
 Frequencies --  1496.7028              1677.4210              1729.9867
 Red. masses --     1.2192                 3.5151                 4.4513
 Frc consts  --     1.6092                 5.8273                 7.8492
 IR Inten    --     0.0000                12.4978                 0.0000

                    19                     20                     21
                    A'                     A'                     A'
 Frequencies --  3146.6486              3156.9796              3164.2854
 Red. masses --     1.0818                 1.0825                 1.0680
 Frc consts  --     6.3111                 6.3564                 6.3005
 IR Inten    --     0.0000                31.7655                 8.8137

                    22                     23                     24
                    A'                     A'                     A'
 Frequencies --  3165.4382              3246.8678              3247.2643
 Red. masses --     1.0669                 1.1157                 1.1154
 Frc consts  --     6.2985                 6.9300                 6.9296
 IR Inten    --     0.0001                 0.0000                32.9903

 - Thermochemistry -
 -------------------
 Temperature   298.150 Kelvin.  Pressure   1.00000 Atm.
 Atom     1 has atomic number  6 and mass  12.00000

 Molecular mass:    54.04695 amu.
 Principal axes and moments of inertia in atomic units:
                           1         2         3
     Eigenvalues --    42.65030 409.40929 452.05959
           X           -0.54545   0.83814   0.00000
           Y            0.83814   0.54545   0.00000
           Z            0.00000   0.00000   1.00000
 This molecule is an asymmetric top.
 Rotational symmetry number  1.
 Rotational temperatures (Kelvin)      2.03079     0.21156     0.19160
 Rotational constants (GHZ):          42.31485     4.40816     3.99226
 Zero-point vibrational energy     224457.8 (Joules/Mol)
                                   53.64669 (Kcal/Mol)
 Warning -- explicit consideration of   4 degrees of freedom as
           vibrations may cause significant error
 Vibrational temperatures:    255.53   429.67   743.12   775.56  1124.59
          (Kelvin)           1305.26  1335.18  1340.79  1443.04  1454.03
                             1531.16  1785.30  1912.19  1915.80  2064.77
                             2153.42  2413.43  2489.06  4527.32  4542.18
                             4552.70  4554.35  4671.51  4672.08

 Zero-point correction=                           0.085491 (Hartree/Particle)
 Thermal correction to Energy=                    0.090134
 Thermal correction to Enthalpy=                  0.091079
 Thermal correction to Gibbs Free Energy=         0.059049
 Sum of electronic and zero-point Energies=           -155.906647
 Sum of electronic and thermal Energies=              -155.902004
 Sum of electronic and thermal Enthalpies=            -155.901060
 Sum of electronic and thermal Free Energies=         -155.933089

                     E (Thermal)             CV                S
                      KCal/Mol        Cal/Mol-Kelvin    Cal/Mol-Kelvin
 Total                   56.560             15.720             67.411
 Electronic               0.000              0.000              0.000
 Translational            0.889              2.981             37.884
 Rotational               0.889              2.981             23.583
 Vibrational             54.783              9.758              5.944
 Vibration     1          0.628              1.870              2.353
 Vibration     2          0.692              1.676              1.425
 Vibration     3          0.872              1.213              0.618
 Vibration     4          0.894              1.164              0.567

 Optimization completed.
    -- Stationary point found.
 Normal termination of Gaussian 09 at Tue Mar  2 11:21:33 2021.
